{"expmeth": "DSC/DTA", "solvent": null, "footer": "", "ref": {"full": "Dzyuba, S. V.; Bartsch, R. A. (2002) ChemPhysChem 3, 161-166.", "title": "Influence of Structural Variations in 1-Alkyl(aralkyl)-3-Methylimidazolium Hexafluorophosphates and Bis(trifluromethylsulfonyl)imides on Physical Properties of the Ionic Liquids"}, "title": "Phase transition properties: Normal melting temperature", "constr": ["Pressure of 1 atm"], "components": [{"mw": "346.26", "formula": "C<SUB>13</SUB>H<SUB>17</SUB>F<SUB>6</SUB>N<SUB>2</SUB>P", "name": "1-methyl-3-(3-phenylpropyl)-1H-imidazolium hexafluorophosphate", "idout": "ABOesq", "sample": [["Source:", "synthesized by the authors"], ["Purification:", "estimated by the compiler"], ["Purity:", "98 mass %(dried by vacuum heating)"]]}], "dhead": [["Normal melting temperature, K"]], "phases": ["Crystal", "Liquid"], "data": [[["325.1", "4"]]]}