{"title": "Phase transition properties: Normal melting temperature", "ref": {"full": "Alves, M. B.; Umpierre, A. P.; Santos, V. O. J.; Soares, V. C. D.; Dupont, J.; Rubim, J. C.; Suarez, P. A. Z. (2010) Thermochim. Acta 502(1-2), 20-23.", "title": "Characterization of phase-diagrams of ionic mixtures of 1-n-butyl-3-methylimidazolium chloride and niobium chloride or zinc chloride by differential scanning calorimetry"}, "footer": "", "expmeth": "DSC/DTA", "solvent": null, "data": [[["338.1", "1"]]], "phases": ["Crystal", "Liquid"], "dhead": [["Normal melting temperature, K"]], "components": [{"mw": "174.67", "sample": [["Source:", "synthesized by the authors"], ["Purification:", "estimation"], ["Purity:", "98 mol %"]], "idout": "AAhedZ", "name": "1-butyl-3-methylimidazolium chloride", "formula": "C<SUB>8</SUB>H<SUB>15</SUB>ClN<SUB>2</SUB>"}], "constr": ["Pressure of 1 atm"]}