{"components": [{"mw": "375.58", "name": "tetrabutylphosphonium L-valinate", "sample": [["Source:", "commercial source"], ["Purification:", "Karl Fischer titration"], ["Purity:", "0.000045 water mass %(dried by vacuum heating)"]], "idout": "ABULNN", "formula": "C<SUB>21</SUB>H<SUB>46</SUB>NO<SUB>2</SUB>P"}], "constr": ["Pressure of 1 atm"], "dhead": [["Normal melting temperature, K"]], "phases": ["Crystal", "Liquid"], "data": [[["298.92", "0.5"]]], "expmeth": "DSC/DTA", "solvent": null, "footer": "", "ref": {"title": "Thermophysical Properties of Amino Acid-Based Ionic Liquids", "full": "Gardas, R. L.; Ge, R.; Goodrich, P.; Hardacre, C.; Hussain, A.; Rooney, D. W. (2010) J. Chem. Eng. Data 55(4), 1505-1515."}, "title": "Phase transition properties: Normal melting temperature"}