{"ref": {"full": "Greaves, T. L.; Weerawardena, A.; Fong, C.; Krodkiewska, I.; Drummond, C. J. (2006) J. Phys. Chem. B 110(45), 22479-22487.", "title": "Protic Ionic Liquids: Solvents with Tunable Phase Behavior and Physicochemical  Properties"}, "title": "Phase transition properties: Normal melting temperature", "expmeth": "DSC/DTA", "solvent": null, "footer": "", "data": [[["285.1", "1"]]], "dhead": [["Normal melting temperature, K"]], "phases": ["Crystal 1", "Liquid"], "components": [{"sample": [["Source:", "synthesized by the authors"], ["Purification:", "Karl Fischer titration"], ["Purity:", "0.26 water mass %(dried by vacuum heating)"]], "idout": "AAZfLU", "name": "pentylammonium formate", "formula": "C<SUB>6</SUB>H<SUB>15</SUB>NO<SUB>2</SUB>", "mw": "133.19"}], "constr": ["Pressure of 1 atm"]}