{"footer": "", "expmeth": "Visual observation", "solvent": null, "ref": {"title": "Solubilities of 1,1'-[1,2-Ethanediylbis(oxy-1,2-ethanediyl)]bis-[3-methyl-1H-imidazolium-1-yl] Dihexafluorophosphate in Water, Methanol, Ethanol, Dimethylformamide, Dimethyl Sulfoxide, and (Acetone + Water) Binary Solvent Mixtures", "full": "Guo, J.-r.; Zhuang, L.-H.; Wang, G.; Wang, Y.; Sun, J. (2014) J. Chem. Eng. Data 59(9), 2827-2833."}, "title": "Phase transition properties: Normal melting temperature", "constr": ["Pressure of 1 atm"], "components": [{"mw": "570.30", "name": "1,1'-[ethane-1,2-diylbis(oxyethane-2,1-diyl)]bis(3-methylimidazolium) hexafluorophosphate", "idout": "ACFjSK", "sample": [["Source:", "synthesized by the authors"], ["Initial purification:", "HPLC"], ["Initial purity:", "99 mass %"], ["Final purification:", "Karl Fischer titration"], ["Final purity:", "0.005 water mass %"]], "formula": "C<SUB>14</SUB>H<SUB>24</SUB>F<SUB>12</SUB>N<SUB>4</SUB>O<SUB>2</SUB>P<SUB>2</SUB>"}], "phases": ["Crystal", "Liquid"], "dhead": [["Normal melting temperature, K"]], "data": [[["364", "2"]]]}