{"expmeth": "DSC/DTA", "solvent": null, "footer": "", "title": "Phase transition properties: Normal melting temperature", "ref": {"full": "Lethesh, K. C.; Shah, S. N.; Mutalib, M. I. A. (2014) J. Chem. Eng. Data 59(6), 1788-1795.", "title": "Synthesis, Characterization, and Thermophysical Properties of 1,8-Diazobicyclo[5.4.0]undec-7-ene Based Thiocyanate Ionic Liquids"}, "dhead": [["Normal melting temperature, K"]], "phases": ["Crystal", "Liquid"], "data": [[["323.1", "2"]]], "constr": ["Pressure of 1 atm"], "components": [{"mw": "267.44", "formula": "C<SUB>14</SUB>H<SUB>25</SUB>N<SUB>3</SUB>S", "sample": [["Source:", "synthesized by the authors"], ["Purification:", "chemical analysis;Karl Fischer titration;ion-selective electrode"], ["Purity:", "99.79 mass %;0.0635 water mass %;0.0859 halide impurity mass %(dried by vacuum heating)"]], "idout": "AAzWzG", "name": "1-butyl-2,3,4,6,7,8,9,10-octahydropyrimido[1,2-a]azepinium thiocyanate"}]}