{"expmeth": "DSC/DTA", "solvent": null, "footer": "", "ref": {"full": "Lethesh, K. C.; Shah, S. N.; Mutalib, M. I. A. (2014) J. Chem. Eng. Data 59(6), 1788-1795.", "title": "Synthesis, Characterization, and Thermophysical Properties of 1,8-Diazobicyclo[5.4.0]undec-7-ene Based Thiocyanate Ionic Liquids"}, "title": "Phase transition properties: Normal melting temperature", "components": [{"idout": "ABDgng", "sample": [["Source:", "synthesized by the authors"], ["Purification:", "chemical analysis;Karl Fischer titration"], ["Purity:", "99.63 mass %;0.0483 water mass %(dried by vacuum heating)"]], "name": "1-butyl-2,3,4,6,7,8,9,10-octahydropyrimido[1,2-a]azepinium bromide", "formula": "C<SUB>13</SUB>H<SUB>25</SUB>BrN<SUB>2</SUB>", "mw": "289.26"}], "constr": ["Pressure of 1 atm"], "dhead": [["Normal melting temperature, K"]], "phases": ["Crystal", "Liquid"], "data": [[["355.1", "2"]]]}