{"footer": "", "expmeth": "DSC/DTA", "solvent": null, "ref": {"title": "Synthesis, Characterization, and Thermophysical Properties of 1,8-Diazobicyclo[5.4.0]undec-7-ene Based Thiocyanate Ionic Liquids", "full": "Lethesh, K. C.; Shah, S. N.; Mutalib, M. I. A. (2014) J. Chem. Eng. Data 59(6), 1788-1795."}, "title": "Phase transition properties: Normal melting temperature", "phases": ["Crystal", "Liquid"], "dhead": [["Normal melting temperature, K"]], "data": [[["321.1", "2"]]], "components": [{"mw": "407.70", "formula": "C<SUB>24</SUB>H<SUB>45</SUB>N<SUB>3</SUB>S", "name": "1-tetradecyl-2,3,4,6,7,8,9,10-octahydropyrimido[1,2-a]azepinium thiocyanate", "idout": "ABaVva", "sample": [["Source:", "synthesized by the authors"], ["Purification:", "chemical analysis;Karl Fischer titration;ion-selective electrode"], ["Purity:", "99.67 mass %;0.0581 water mass %;0.0915 halide impurity mass %(dried by vacuum heating)"]]}], "constr": ["Pressure of 1 atm"]}