{"data": [[["285.1", "4"]]], "dhead": [["Normal melting temperature, K"]], "phases": ["Crystal 1", "Liquid"], "constr": ["Pressure of 1 atm"], "components": [{"formula": "C<SUB>10</SUB>H<SUB>18</SUB>F<SUB>6</SUB>N<SUB>2</SUB>O<SUB>4</SUB>S<SUB>2</SUB>", "name": "1-methyl-1-propylpyrrolidinium bis[(trifluoromethyl)sulfonyl]imide", "idout": "ABabro", "sample": [["Source:", "synthesized by the authors"], ["Purity analysis:", "dried by vacuum heating"]], "mw": "408.37"}], "ref": {"title": "Pyrrolidinium Imides: A New Family of Molten Salts and Conductive Plastic Crystal Phases", "full": "MacFarlane, D. R.; Meakin, P.; Sun, J.; Amini, N.; Forsyth, M. (1999) J. Phys. Chem. B 103, 4164-4170."}, "title": "Phase transition properties: Normal melting temperature", "expmeth": "DSC/DTA", "solvent": null, "footer": ""}