{"constr": ["Pressure of 1 atm"], "components": [{"mw": "424.42", "sample": [["Source:", "synthesized by the authors"], ["Purification:", "NMR (proton);Karl Fischer titration"], ["Purity:", "99 mol %;0.000046 water mass %"]], "idout": "ABdgOk", "name": "N,N-dimethyl-N-ethyl-N-pentylammonium bis(trifluoromethylsulfonyl)", "formula": "C<SUB>11</SUB>H<SUB>22</SUB>F<SUB>6</SUB>N<SUB>2</SUB>O<SUB>4</SUB>S<SUB>2</SUB>"}], "dhead": [["Normal melting temperature, K"]], "phases": ["Crystal", "Liquid"], "data": [[["266.7", "1.1"]]], "expmeth": "DSC/DTA", "solvent": null, "footer": "", "title": "Phase transition properties: Normal melting temperature", "ref": {"full": "Makino, T.; Kanakubo, M.; Umecky, T.; Suzuki, A. (2013) J. Chem. Eng. Data 58(2), 370-376.", "title": "Electrical Conductivities, Viscosities, and Densities of N-Acetoxyethyl-N,N-dimethyl-N-ethylammonium and N,N-Dimethyl-N-ethyl-N-methoxyethoxyethylammonium Bis(trifluoromethanesulfonyl)amide and Their Nonfunctionalized Analogues"}}