{"ref": {"title": "Thermal and Structural Studies of Imidazolium-Based Ionic Liquids with and without Liquid-Crystalline Phases: The Origin of Nanostructure", "full": "Nemoto, F.; Kofu, M.; Yamamuro, O. (2015) J. Phys. Chem. B 119(15), 5028-5034."}, "title": "Phase transition properties: Normal melting temperature", "expmeth": "DSC/DTA", "solvent": null, "footer": "", "data": [[["282.2", "2"]]], "dhead": [["Normal melting temperature, K"]], "phases": ["Crystal 1", "Liquid"], "components": [{"mw": "284.19", "formula": "C<SUB>8</SUB>H<SUB>15</SUB>F<SUB>6</SUB>N<SUB>2</SUB>P", "name": "1-butyl-3-methylimidazolium hexafluorophosphate", "idout": "ABChPJ", "sample": [["Source:", "commercial source"], ["Purification:", "stated by supplier"], ["Purity:", "99 % (basis not specified)"]]}], "constr": ["Pressure of 1 atm"]}