{"constr": ["Pressure of 1 atm"], "components": [{"mw": "270.16", "name": "1-methyl-3-(1-methylethyl)imidazolium hexafluorophosphate", "idout": "AAzxoV", "sample": [["Source:", "synthesized by the authors"], ["Purification:", "estimated by the compiler"], ["Purity:", "97 % (basis not specified)(dried by oven heating)"]], "formula": "C<SUB>7</SUB>H<SUB>13</SUB>F<SUB>6</SUB>N<SUB>2</SUB>P"}], "phases": ["Crystal", "Liquid"], "dhead": [["Normal melting temperature, K"]], "data": [[["375.1", "2"]]], "footer": "", "solvent": null, "expmeth": "DSC/DTA", "ref": {"full": "Ngo, H. L.; LeCompte, K.; Hargens, L.; McEwen, A. B. (2000) Thermochim. Acta 357-358, 97-102.", "title": "Thermal properties of imidazolium ionic liquids"}, "title": "Phase transition properties: Normal melting temperature"}