{"components": [{"formula": "C<SUB>6</SUB>H<SUB>11</SUB>F<SUB>6</SUB>N<SUB>2</SUB>P", "idout": "AAxNWt", "sample": [["Source:", "synthesized by the authors"], ["Purification:", "estimated by the compiler"], ["Purity:", "97 % (basis not specified)(dried by oven heating)"]], "name": "1-ethyl-3-methylimidazolium hexafluorophosphate", "mw": "256.13"}], "constr": ["Pressure of 1 atm"], "dhead": [["Normal melting temperature, K"]], "phases": ["Crystal", "Liquid"], "data": [[["335.1", "2"]]], "expmeth": "DSC/DTA", "solvent": null, "footer": "", "title": "Phase transition properties: Normal melting temperature", "ref": {"title": "Thermal properties of imidazolium ionic liquids", "full": "Ngo, H. L.; LeCompte, K.; Hargens, L.; McEwen, A. B. (2000) Thermochim. Acta 357-358, 97-102."}}