{"phases": ["Crystal", "Liquid"], "dhead": [["Normal melting temperature, K"]], "data": [[["377.65", "0.5"]]], "components": [{"mw": "482.77", "formula": "C<SUB>27</SUB>H<SUB>50</SUB>N<SUB>2</SUB>O<SUB>3</SUB>S", "name": "1-hexadecylpyridinium N-cyclohexylsulfamate", "idout": "ABorpr", "sample": [["Source:", "synthesized by the authors"], ["Purity:", "99 mass %"], ["Purity analysis:", "dried by vacuum heating"]]}], "constr": ["Pressure of 1 atm"], "footer": "", "expmeth": "DSC/DTA", "solvent": null, "ref": {"title": "Sweet ionic liquids-cyclamates: Synthesis, properties, and application as feeding deterrents", "full": "Pernak, J.; Wasinski, K.; Praczyk, T.; Nawrot, J.; Cieniecka-Roslonkiewicz, A.; Walkiewicz, F.; Materna, K. (2012) Sci. China Chem. 55(8), 1532-1541."}, "title": "Phase transition properties: Normal melting temperature"}