{"dhead": [["Normal melting temperature, K"]], "phases": ["Crystal", "Liquid"], "data": [[["333.4", "5"]]], "constr": ["Pressure of 1 atm"], "components": [{"mw": "174.67", "formula": "C<SUB>8</SUB>H<SUB>15</SUB>ClN<SUB>2</SUB>", "name": "1-butyl-3-methylimidazolium chloride", "idout": "AAhedZ", "sample": [["Source:", "synthesized by the authors"], ["Purification:", "NMR (proton);Karl Fischer titration"], ["Purity:", "98.6 mol %;0.1415 water mass %(chemical reagent treatment;dried by vacuum heating)"]]}], "solvent": null, "expmeth": "DSC/DTA", "footer": "", "ref": {"title": "A Promising Ionic Liquid [BMIM][FeCl4] for the Extractive Separation of Aromatic and Aliphatic Hydrocarbons", "full": "Sakal, S. A.; Lu, Y.-Z.; Jiang, X.-C.; Shen, C.; Li, C.-X. (2014) J. Chem. Eng. Data 59(3), 533-539."}, "title": "Phase transition properties: Normal melting temperature"}