{"constr": ["Pressure of 1 atm"], "components": [{"formula": "C<SUB>4</SUB>H<SUB>8</SUB>N<SUB>8</SUB>O<SUB>3</SUB>", "name": "4-amino-1-(2-azidoethyl)-4H-1,2,4-triazol-1-ium nitrate", "idout": "AApdth", "sample": [["Source:", "synthesized by the authors"], ["Purification:", "estimated by the compiler"], ["Purity:", "99 % (basis not specified)"]], "mw": "216.16"}], "dhead": [["Normal melting temperature, K"]], "phases": ["Crystal", "Liquid"], "data": [[["343.1", "1"]]], "expmeth": "DSC/DTA", "solvent": null, "footer": "", "ref": {"title": "Energetic Ionic Liquids from Azido Derivatives of 1,2,4-Triazole", "full": "Xue, H.; Shreeve, J. (2005) Adv. Mater. Res. 17, 2142-2146."}, "title": "Phase transition properties: Normal melting temperature"}