{"data": [[["217.1", "1"]]], "phases": ["Crystal", "Liquid"], "dhead": [["Normal melting temperature, K"]], "components": [{"formula": "C<SUB>4</SUB>H<SUB>7</SUB>ClN<SUB>6</SUB>O<SUB>4</SUB>", "name": "1-(2-azidoethyl)-1H-1,2,4-triazol-1-ium perchlorate", "sample": [["Source:", "synthesized by the authors"], ["Purification:", "estimated by the compiler"], ["Purity:", "99 % (basis not specified)"]], "idout": "AAttAw", "mw": "238.59"}], "constr": ["Pressure of 1 atm"], "ref": {"title": "Energetic Ionic Liquids from Azido Derivatives of 1,2,4-Triazole", "full": "Xue, H.; Shreeve, J. (2005) Adv. Mater. Res. 17, 2142-2146."}, "title": "Phase transition properties: Normal melting temperature", "footer": "", "expmeth": "DSC/DTA", "solvent": null}