{"footer": "", "solvent": null, "expmeth": "DSC/DTA", "title": "Phase transition properties: Normal melting temperature", "ref": {"title": "Energetic Salts of N-Aminoazoles", "full": "Xue, H.; Arritt, S. W.; Twamley, B.; Shreeve, J. M. (2004) Inorg. Chem. 43, 7972-7977."}, "phases": ["Crystal", "Liquid"], "dhead": [["Normal melting temperature, K"]], "data": [[["367.1", "1"]]], "constr": ["Pressure of 1 atm"], "components": [{"mw": "178.15", "formula": "C<SUB>3</SUB>H<SUB>10</SUB>N<SUB>6</SUB>O<SUB>3</SUB>", "sample": [["Source:", "synthesized by the authors"], ["Purification:", "estimated by the compiler"], ["Purity:", "97 % (basis not specified)(dried by vacuum heating)"]], "idout": "AAiNDp", "name": "3-amino-1,5-dimethyl-2,3-dihydro-1H-tetrazol-4-ium nitrate"}]}