{"phases":["Liquid"],"ref":{"full":"Seki, S.; Tsuzuki, S.; Hayamizu, K.; Umebayashi, Y.; Serizawa, N.; Takei, K.; Miyashiro, H. (2012) J. Chem. Eng. Data 57(8), 2211-2216.","title":"Comprehensive Refractive Index Property for Room-Temperature Ionic Liquids"},"data":[[["283.15"],["101.325"],["1455.6","2.5"]],[["288.15"],["101.325"],["1450.9","2.5"]],[["293.15"],["101.325"],["1446.2","2.4"]],[["298.15"],["101.325"],["1441.4","2.4"]],[["303.15"],["101.325"],["1436.7","2.4"]],[["308.15"],["101.325"],["1432.1","2.4"]],[["313.15"],["101.325"],["1427.5","2.4"]],[["318.15"],["101.325"],["1422.9","2.4"]],[["323.15"],["101.325"],["1418.4","2.4"]],[["328.15"],["101.325"],["1413.9","2.3"]],[["333.15"],["101.325"],["1409.5","2.3"]],[["338.15"],["101.325"],["1405.1","2.3"]],[["343.15"],["101.325"],["1400.7","2.3"]],[["348.15"],["101.325"],["1396.3","2.3"]],[["353.15"],["101.325"],["1391.9","2.3"]]],"expmeth":"Vibrating tube method","footer":"","solvent":null,"title":"Volumetric properties: Specific density","dhead":[["Temperature, K",null],["Pressure, kPa",null],["Specific density, kg/m<SUP>3</SUP>","Liquid"]],"constr":[],"components":[{"idout":"ABEAdT","mw":"291.30","sample":[["Source:","commercial source"],["Initial purification:","stated by supplier"],["Initial purity:","98 mass %"],["Final purification:","Karl Fischer titration"],["Final purity:","0.01 water mass %(dried by vacuum heating)"]],"formula":"C<SUB>6</SUB>H<SUB>11</SUB>F<SUB>2</SUB>N<SUB>3</SUB>O<SUB>4</SUB>S<SUB>2</SUB>","name":"1-ethyl-3-methyl-1H-imidazolium bis(fluorosulfonyl)amide"}]}