{"phases":["Liquid"],"ref":{"title":"Density and Refractive Index for Binary Systems of the Ionic Liquid [Bmim][BF4] with Methanol, 1,3-Dichloropropane, and Dimethyl Carbonate","full":"Iglesias-Otero, M. A.; Troncoso, J.; Carballo, E. (2007) J. Solution Chem. 36, 1219-1230."},"data":[[["293.15"],["101"],["1204.9","0.9"]],[["293.15"],["101"],["1205","0.9"]],[["298.15"],["101"],["1201.3","0.9"]],[["298.15"],["101"],["1201.4","0.9"]],[["303.15"],["101"],["1197.8","0.9"]],[["303.15"],["101"],["1197.9","0.9"]],[["308.15"],["101"],["1194.2","0.9"]],[["308.15"],["101"],["1194.3","0.9"]],[["313.15"],["101"],["1190.7","0.9"]],[["313.15"],["101"],["1190.8","0.9"]],[["318.15"],["101"],["1187.2","0.8"]],[["318.15"],["101"],["1187.3","0.8"]],[["323.15"],["101"],["1183.7","0.8"]],[["323.15"],["101"],["1183.8","0.8"]]],"expmeth":"Vibrating tube method","solvent":null,"footer":"","constr":[],"dhead":[["Temperature, K",null],["Pressure, kPa",null],["Specific density, kg/m<SUP>3</SUP>","Liquid"]],"components":[{"formula":"C<SUB>8</SUB>H<SUB>15</SUB>BF<SUB>4</SUB>N<SUB>2</SUB>","sample":[["Source:","commercial source"],["Purification:","stated by supplier"],["Initial purity:","99.8 % (basis not specified)"],["Final purity:","0.08 halide impurity mass %(dried by vacuum heating)"]],"mw":"226.02","name":"1-butyl-3-methylimidazolium tetrafluoroborate","idout":"AArYYV"}],"title":"Volumetric properties: Specific density"}