{"expmeth":"Vibrating tube method","data":[[["293.15"],["101"],["1290.6","1.5"]],[["298.15"],["101"],["1286.8","1.5"]],[["303.15"],["101"],["1283","1.5"]],[["313.15"],["101"],["1275.5","1.4"]],[["323.15"],["101"],["1268","1.4"]],[["333.15"],["101"],["1260.5","1.4"]],[["343.15"],["101"],["1253.2","1.4"]],[["353.15"],["101"],["1245.9","1.4"]]],"ref":{"full":"Ciocirlan, O.; Croitoru, O.; Iulian, O. (2014) J. Chem. Eng. Data 59(4), 1165-1174.","title":"Density and Refractive Index of Binary Mixtures of Two 1-Alkyl-3-methylimidazolium Ionic Liquids with 1,4-Dioxane and Ethylene Glycol"},"phases":["Liquid"],"components":[{"name":"1-ethyl-3-methylimidazolium tetrafluoroborate","formula":"C<SUB>6</SUB>H<SUB>11</SUB>BF<SUB>4</SUB>N<SUB>2</SUB>","sample":[["Source:","commercial source"],["Purification:","stated by supplier"],["Purity:","98 mass %"],["Purity analysis:","none used"]],"mw":"197.97","idout":"AAmDhG"}],"dhead":[["Temperature, K",null],["Pressure, kPa",null],["Specific density, kg/m<SUP>3</SUP>","Liquid"]],"constr":[],"title":"Volumetric properties: Specific density","solvent":null,"footer":""}